6442177
 OpenBabel05112018433D

151154  0  0  1  0  0  0  0  0999 V2000
   -2.3641    6.9744  -10.1282 O   0  0  0  0  0  0  0  0  0  0  0  0
    0.4029    6.8825   -8.7160 O   0  0  0  0  0  0  0  0  0  0  0  0
   -0.2704    5.7431   -3.0739 O   0  0  0  0  0  0  0  0  0  0  0  0
    3.1216    8.2536   -2.8573 O   0  0  0  0  0  0  0  0  0  0  0  0
    1.8645    6.5679   -1.8188 O   0  0  0  0  0  0  0  0  0  0  0  0
   -0.6064    3.7337   -1.9746 O   0  0  0  0  0  0  0  0  0  0  0  0
   -1.9505    4.9684   -6.6644 O   0  0  0  0  0  0  0  0  0  0  0  0
    4.3574    6.1338   -4.3285 O   0  0  0  0  0  0  0  0  0  0  0  0
   -3.9829    5.5274  -11.6377 O   0  0  0  0  0  0  0  0  0  0  0  0
    3.0092    4.0660   -2.1101 O   0  0  0  0  0  0  0  0  0  0  0  0
    3.7596   12.7464   -1.9426 O   0  0  0  0  0  0  0  0  0  0  0  0
   -5.7119    8.6122   -5.8351 O   0  0  0  0  0  0  0  0  0  0  0  0
   -6.6822    7.1445   -2.5812 O   0  0  0  0  0  0  0  0  0  0  0  0
   -8.7323    9.2918   -3.9996 O   0  0  0  0  0  0  0  0  0  0  0  0
    2.1487    4.2325   -4.2772 N   0  0  0  0  0  0  0  0  0  0  0  0
   -1.2227    9.5571   -7.1172 C   0  0  1  0  0  0  0  0  0  0  0  0
    0.0108    9.2106   -8.0061 C   0  0  0  0  0  0  0  0  0  0  0  0
   -2.4154    9.9634   -8.0539 C   0  0  0  0  0  0  0  0  0  0  0  0
   -1.5928    8.4687   -5.9773 C   0  0  0  0  0  0  0  0  0  0  0  0
   -0.2210    8.1126   -9.0983 C   0  0  2  0  0  0  0  0  0  0  0  0
   -1.7490    7.9405   -9.3074 C   0  0  1  0  0  0  0  0  0  0  0  0
   -2.3590    9.3263   -9.4543 C   0  0  0  0  0  0  0  0  0  0  0  0
   -0.4589    8.1839   -4.8786 C   0  0  2  0  0  0  0  0  0  0  0  0
    0.0375    6.6942   -4.2320 C   0  0  2  0  0  0  0  0  0  0  0  0
   -0.3731    9.3956   -4.0104 C   0  0  0  0  0  0  0  0  0  0  0  0
   -0.2097    5.8358   -5.4096 C   0  0  0  0  0  0  0  0  0  0  0  0
    1.0320    3.4396   -3.8303 C   0  0  2  0  0  0  0  0  0  0  0  0
    4.0826    6.8248   -0.9894 C   0  0  1  0  0  0  0  0  0  0  0  0
    3.1925    6.9276   -2.2896 C   0  0  2  0  0  0  0  0  0  0  0  0
   -1.7959    6.5525  -11.3398 C   0  0  0  0  0  0  0  0  0  0  0  0
    4.1536    9.0561   -2.3493 C   0  0  1  0  0  0  0  0  0  0  0  0
    5.5030    7.3640   -1.2766 C   0  0  0  0  0  0  0  0  0  0  0  0
    0.0416    4.3283   -2.8454 C   0  0  0  0  0  0  0  0  0  0  0  0
    1.6177    2.0039   -3.5019 C   0  0  0  0  0  0  0  0  0  0  0  0
    5.4851    8.3230   -2.4641 C   0  0  0  0  0  0  0  0  0  0  0  0
    1.8279    6.9233   -8.7716 C   0  0  0  0  0  0  0  0  0  0  0  0
   -1.6297    5.3432   -5.5363 C   0  0  0  0  0  0  0  0  0  0  0  0
    2.7010    3.8030   -5.5681 C   0  0  0  0  0  0  0  0  0  0  0  0
    3.0257    1.7037   -4.1523 C   0  0  0  0  0  0  0  0  0  0  0  0
    3.2945    2.3957   -5.4954 C   0  0  0  0  0  0  0  0  0  0  0  0
    4.3249   10.5531   -2.6245 C   0  0  0  0  0  0  0  0  0  0  0  0
    3.6199    5.9223   -3.3760 C   0  0  0  0  0  0  0  0  0  0  0  0
   -2.6491    5.2488   -4.3763 C   0  0  2  0  0  0  0  0  0  0  0  0
    3.0087    4.5790   -3.2221 C   0  0  0  0  0  0  0  0  0  0  0  0
    3.3921    7.5843    0.1977 C   0  0  0  0  0  0  0  0  0  0  0  0
   -2.5748    5.2712  -11.6750 C   0  0  0  0  0  0  0  0  0  0  0  0
    3.1473   11.5200   -2.3851 C   0  0  1  0  0  0  0  0  0  0  0  0
   -3.2776    3.8471   -4.5021 C   0  0  0  0  0  0  0  0  0  0  0  0
   -3.5650    6.4319   -4.2924 C   0  0  0  0  0  0  0  0  0  0  0  0
    2.0688   11.1308   -1.3862 C   0  0  0  0  0  0  0  0  0  0  0  0
   -4.7666    6.6510   -4.8667 C   0  0  0  0  0  0  0  0  0  0  0  0
   -5.5220    7.9429   -4.5863 C   0  0  2  0  0  0  0  0  0  0  0  0
    2.3932   10.9666    0.0698 C   0  0  0  0  0  0  0  0  0  0  0  0
    0.7864   11.1512   -1.7801 C   0  0  0  0  0  0  0  0  0  0  0  0
   -6.8706    7.8115   -3.8339 C   0  0  2  0  0  0  0  0  0  0  0  0
   -5.3811    5.6945   -5.8434 C   0  0  0  0  0  0  0  0  0  0  0  0
    2.8602   13.8399   -1.8429 C   0  0  0  0  0  0  0  0  0  0  0  0
   -7.5666    9.1857   -3.6768 C   0  0  0  0  0  0  0  0  0  0  0  0
   -6.8395   10.3980   -3.0353 C   0  0  1  0  0  0  0  0  0  0  0  0
   -0.3298   10.6423   -1.0246 C   0  0  0  0  0  0  0  0  0  0  0  0
   -6.3981   10.2175   -1.5626 C   0  0  0  0  0  0  0  0  0  0  0  0
   -5.1246    9.4144   -1.2186 C   0  0  1  0  0  0  0  0  0  0  0  0
   -5.8884   11.1181   -3.9903 C   0  0  0  0  0  0  0  0  0  0  0  0
   -1.5815   10.8465   -1.4445 C   0  0  0  0  0  0  0  0  0  0  0  0
   -3.8869   10.1962   -1.5498 C   0  0  0  0  0  0  0  0  0  0  0  0
   -5.1589    8.9846    0.2578 C   0  0  0  0  0  0  0  0  0  0  0  0
   -2.6889   10.0661   -0.9694 C   0  0  0  0  0  0  0  0  0  0  0  0
   -7.8905    6.8710   -1.8812 C   0  0  0  0  0  0  0  0  0  0  0  0
   -0.9715   10.4800   -6.5821 H   0  0  0  0  0  0  0  0  0  0  0  0
    0.8675    8.9930   -7.3697 H   0  0  0  0  0  0  0  0  0  0  0  0
    0.2821   10.1348   -8.5383 H   0  0  0  0  0  0  0  0  0  0  0  0
   -2.4210   11.0543   -8.1889 H   0  0  0  0  0  0  0  0  0  0  0  0
   -3.3715    9.7091   -7.5870 H   0  0  0  0  0  0  0  0  0  0  0  0
   -2.4904    8.8475   -5.4666 H   0  0  0  0  0  0  0  0  0  0  0  0
   -1.8901    7.5490   -6.4612 H   0  0  0  0  0  0  0  0  0  0  0  0
    0.2319    8.4344  -10.0470 H   0  0  0  0  0  0  0  0  0  0  0  0
   -2.1182    7.5454   -8.3531 H   0  0  0  0  0  0  0  0  0  0  0  0
   -1.7341    9.9430  -10.1216 H   0  0  0  0  0  0  0  0  0  0  0  0
   -3.3474    9.3059   -9.9246 H   0  0  0  0  0  0  0  0  0  0  0  0
    0.4267    8.3244   -5.5070 H   0  0  0  0  0  0  0  0  0  0  0  0
    1.0450    6.9558   -3.9753 H   0  0  0  0  0  0  0  0  0  0  0  0
    0.6427    9.4680   -3.6293 H   0  0  0  0  0  0  0  0  0  0  0  0
   -0.5580   10.3311   -4.5596 H   0  0  0  0  0  0  0  0  0  0  0  0
   -1.1212    9.3194   -3.2376 H   0  0  0  0  0  0  0  0  0  0  0  0
    0.1216    6.3626   -6.3085 H   0  0  0  0  0  0  0  0  0  0  0  0
    0.4346    4.9998   -5.3871 H   0  0  0  0  0  0  0  0  0  0  0  0
    0.3780    3.2177   -4.6866 H   0  0  0  0  0  0  0  0  0  0  0  0
    4.1748    5.7891   -0.6446 H   0  0  0  0  0  0  0  0  0  0  0  0
   -1.9645    7.3155  -12.1044 H   0  0  0  0  0  0  0  0  0  0  0  0
   -0.7312    6.3302  -11.2412 H   0  0  0  0  0  0  0  0  0  0  0  0
    3.8966    9.1701   -1.3136 H   0  0  0  0  0  0  0  0  0  0  0  0
    6.1973    6.5414   -1.4667 H   0  0  0  0  0  0  0  0  0  0  0  0
    5.8851    7.9131   -0.4090 H   0  0  0  0  0  0  0  0  0  0  0  0
    5.5596    7.7695   -3.4044 H   0  0  0  0  0  0  0  0  0  0  0  0
    6.3600    8.9763   -2.4562 H   0  0  0  0  0  0  0  0  0  0  0  0
    0.9304    1.2316   -3.8787 H   0  0  0  0  0  0  0  0  0  0  0  0
    1.6968    1.8306   -2.4237 H   0  0  0  0  0  0  0  0  0  0  0  0
    2.1771    7.1757   -9.7774 H   0  0  0  0  0  0  0  0  0  0  0  0
    2.2420    7.6340   -8.0508 H   0  0  0  0  0  0  0  0  0  0  0  0
    2.2077    5.9336   -8.5054 H   0  0  0  0  0  0  0  0  0  0  0  0
    1.8839    3.7804   -6.3019 H   0  0  0  0  0  0  0  0  0  0  0  0
    3.4317    4.5232   -5.9436 H   0  0  0  0  0  0  0  0  0  0  0  0
    3.2004    0.6240   -4.2576 H   0  0  0  0  0  0  0  0  0  0  0  0
    3.8139    2.0361   -3.4631 H   0  0  0  0  0  0  0  0  0  0  0  0
    2.9081    1.7834   -6.3225 H   0  0  0  0  0  0  0  0  0  0  0  0
    4.3776    2.4564   -5.6757 H   0  0  0  0  0  0  0  0  0  0  0  0
    4.7843   10.7439   -3.6006 H   0  0  0  0  0  0  0  0  0  0  0  0
    5.1029   10.8551   -1.9020 H   0  0  0  0  0  0  0  0  0  0  0  0
   -2.2282    5.1929   -3.3747 H   0  0  0  0  0  0  0  0  0  0  0  0
    2.3862    7.9314   -0.0715 H   0  0  0  0  0  0  0  0  0  0  0  0
    3.2745    6.9447    1.0736 H   0  0  0  0  0  0  0  0  0  0  0  0
    3.9506    8.4682    0.5253 H   0  0  0  0  0  0  0  0  0  0  0  0
   -2.3202    4.8815  -12.6621 H   0  0  0  0  0  0  0  0  0  0  0  0
   -2.3786    4.4965  -10.9245 H   0  0  0  0  0  0  0  0  0  0  0  0
    2.7041   11.7001   -3.3743 H   0  0  0  0  0  0  0  0  0  0  0  0
    1.9660    5.7541   -1.2553 H   0  0  0  0  0  0  0  0  0  0  0  0
   -4.1032    3.7098   -3.8002 H   0  0  0  0  0  0  0  0  0  0  0  0
   -3.6333    3.6461   -5.5156 H   0  0  0  0  0  0  0  0  0  0  0  0
   -2.5191    3.0818   -4.2882 H   0  0  0  0  0  0  0  0  0  0  0  0
   -3.1881    7.1989   -3.6090 H   0  0  0  0  0  0  0  0  0  0  0  0
   -4.1245    5.9711  -10.7747 H   0  0  0  0  0  0  0  0  0  0  0  0
   -4.8626    8.5751   -3.9935 H   0  0  0  0  0  0  0  0  0  0  0  0
    1.9079   11.7741    0.6332 H   0  0  0  0  0  0  0  0  0  0  0  0
    2.0148   10.0232    0.4688 H   0  0  0  0  0  0  0  0  0  0  0  0
    3.4639   11.0253    0.2671 H   0  0  0  0  0  0  0  0  0  0  0  0
    0.5650   11.4909   -2.7912 H   0  0  0  0  0  0  0  0  0  0  0  0
   -7.5435    7.1968   -4.4506 H   0  0  0  0  0  0  0  0  0  0  0  0
   -4.6545    5.4249   -6.6181 H   0  0  0  0  0  0  0  0  0  0  0  0
   -5.7285    4.7964   -5.3307 H   0  0  0  0  0  0  0  0  0  0  0  0
   -6.2394    6.1328   -6.3582 H   0  0  0  0  0  0  0  0  0  0  0  0
    2.3961   14.0392   -2.8113 H   0  0  0  0  0  0  0  0  0  0  0  0
    2.0927   13.6634   -1.0836 H   0  0  0  0  0  0  0  0  0  0  0  0
    3.4331   14.7131   -1.5259 H   0  0  0  0  0  0  0  0  0  0  0  0
   -7.6701   11.1144   -2.9384 H   0  0  0  0  0  0  0  0  0  0  0  0
   -0.1307    9.9273   -0.2310 H   0  0  0  0  0  0  0  0  0  0  0  0
   -6.2845   11.2223   -1.1306 H   0  0  0  0  0  0  0  0  0  0  0  0
   -7.2461    9.7680   -1.0317 H   0  0  0  0  0  0  0  0  0  0  0  0
   -4.8638    8.5712   -6.3098 H   0  0  0  0  0  0  0  0  0  0  0  0
   -5.0834    8.5043   -1.8104 H   0  0  0  0  0  0  0  0  0  0  0  0
   -6.3876   11.3129   -4.9477 H   0  0  0  0  0  0  0  0  0  0  0  0
   -5.5981   12.0910   -3.5731 H   0  0  0  0  0  0  0  0  0  0  0  0
   -4.9777   10.5778   -4.2162 H   0  0  0  0  0  0  0  0  0  0  0  0
   -1.7668   11.5061   -2.2914 H   0  0  0  0  0  0  0  0  0  0  0  0
   -3.9690   10.9247   -2.3473 H   0  0  0  0  0  0  0  0  0  0  0  0
   -6.1363    8.5803    0.5378 H   0  0  0  0  0  0  0  0  0  0  0  0
   -4.4232    8.1943    0.4508 H   0  0  0  0  0  0  0  0  0  0  0  0
   -4.9347    9.8243    0.9254 H   0  0  0  0  0  0  0  0  0  0  0  0
   -2.5040    9.3157   -0.2052 H   0  0  0  0  0  0  0  0  0  0  0  0
   -8.4538    7.7864   -1.6805 H   0  0  0  0  0  0  0  0  0  0  0  0
   -8.5073    6.1600   -2.4359 H   0  0  0  0  0  0  0  0  0  0  0  0
   -7.6257    6.4305   -0.9150 H   0  0  0  0  0  0  0  0  0  0  0  0
  1 30  1  0  0  0  0
  2 36  1  0  0  0  0
  3 24  1  0  0  0  0
  3 33  1  0  0  0  0
  4 29  1  0  0  0  0
  4 31  1  0  0  0  0
  5116  1  0  0  0  0
  6 33  2  0  0  0  0
  7 37  2  0  0  0  0
  8 42  2  0  0  0  0
  9 46  1  0  0  0  0
  9121  1  0  0  0  0
 10 44  2  0  0  0  0
 11 57  1  0  0  0  0
 12138  1  0  0  0  0
 13 68  1  0  0  0  0
 14 58  2  0  0  0  0
 15 27  1  0  0  0  0
 15 38  1  0  0  0  0
 15 44  1  0  0  0  0
 16 17  1  0  0  0  0
 16 18  1  0  0  0  0
 16 69  1  1  0  0  0
 16 19  1  0  0  0  0
 17 20  1  0  0  0  0
 17 70  1  0  0  0  0
 17 71  1  0  0  0  0
 18 22  1  0  0  0  0
 18 72  1  0  0  0  0
 18 73  1  0  0  0  0
 19 74  1  0  0  0  0
 19 75  1  0  0  0  0
 20 21  1  6  0  0  0
 20 76  1  0  0  0  0
 20  2  1  0  0  0  0
 21  1  1  0  0  0  0
 21 22  1  0  0  0  0
 21 77  1  1  0  0  0
 22 78  1  0  0  0  0
 22 79  1  0  0  0  0
 23 25  1  0  0  0  0
 23 80  1  6  0  0  0
 23 19  1  0  0  0  0
 24 26  1  0  0  0  0
 24 23  1  0  0  0  0
 24 81  1  1  0  0  0
 25 82  1  0  0  0  0
 25 83  1  0  0  0  0
 25 84  1  0  0  0  0
 26 37  1  0  0  0  0
 26 85  1  0  0  0  0
 26 86  1  0  0  0  0
 27 33  1  0  0  0  0
 27 34  1  0  0  0  0
 27 87  1  6  0  0  0
 28 29  1  6  0  0  0
 28 32  1  0  0  0  0
 28 88  1  0  0  0  0
 28 45  1  0  0  0  0
 29  5  1  1  0  0  0
 29 42  1  0  0  0  0
 30 46  1  0  0  0  0
 30 89  1  0  0  0  0
 30 90  1  0  0  0  0
 31 35  1  0  0  0  0
 31 41  1  0  0  0  0
 31 91  1  1  0  0  0
 32 35  1  0  0  0  0
 32 92  1  0  0  0  0
 32 93  1  0  0  0  0
 34 39  1  0  0  0  0
 34 96  1  0  0  0  0
 34 97  1  0  0  0  0
 35 94  1  0  0  0  0
 35 95  1  0  0  0  0
 36 98  1  0  0  0  0
 36 99  1  0  0  0  0
 36100  1  0  0  0  0
 37 43  1  0  0  0  0
 38 40  1  0  0  0  0
 38101  1  0  0  0  0
 38102  1  0  0  0  0
 39 40  1  0  0  0  0
 39103  1  0  0  0  0
 39104  1  0  0  0  0
 40105  1  0  0  0  0
 40106  1  0  0  0  0
 41 47  1  0  0  0  0
 41107  1  0  0  0  0
 41108  1  0  0  0  0
 42 44  1  0  0  0  0
 43 49  1  0  0  0  0
 43109  1  1  0  0  0
 43 48  1  0  0  0  0
 45110  1  0  0  0  0
 45111  1  0  0  0  0
 45112  1  0  0  0  0
 46113  1  0  0  0  0
 46114  1  0  0  0  0
 47 11  1  0  0  0  0
 47 50  1  0  0  0  0
 47115  1  6  0  0  0
 48117  1  0  0  0  0
 48118  1  0  0  0  0
 48119  1  0  0  0  0
 49 51  2  0  0  0  0
 49120  1  0  0  0  0
 50 53  1  0  0  0  0
 50 54  2  0  0  0  0
 51 52  1  0  0  0  0
 51 56  1  0  0  0  0
 52 12  1  0  0  0  0
 52 55  1  1  0  0  0
 52122  1  0  0  0  0
 53123  1  0  0  0  0
 53124  1  0  0  0  0
 53125  1  0  0  0  0
 54 60  1  0  0  0  0
 54126  1  0  0  0  0
 55 13  1  0  0  0  0
 55 58  1  0  0  0  0
 55127  1  6  0  0  0
 56128  1  0  0  0  0
 56129  1  0  0  0  0
 56130  1  0  0  0  0
 57131  1  0  0  0  0
 57132  1  0  0  0  0
 57133  1  0  0  0  0
 58 59  1  0  0  0  0
 59 61  1  0  0  0  0
 59 63  1  0  0  0  0
 59134  1  1  0  0  0
 60 64  2  0  0  0  0
 60135  1  0  0  0  0
 61 62  1  0  0  0  0
 61136  1  0  0  0  0
 61137  1  0  0  0  0
 62 65  1  0  0  0  0
 62 66  1  0  0  0  0
 62139  1  6  0  0  0
 63140  1  0  0  0  0
 63141  1  0  0  0  0
 63142  1  0  0  0  0
 64 67  1  0  0  0  0
 64143  1  0  0  0  0
 65 67  2  0  0  0  0
 65144  1  0  0  0  0
 66145  1  0  0  0  0
 66146  1  0  0  0  0
 66147  1  0  0  0  0
 67148  1  0  0  0  0
 68149  1  0  0  0  0
 68150  1  0  0  0  0
 68151  1  0  0  0  0
M  END
>  <PUBCHEM_COMPOUND_CID>
6442177

>  <PUBCHEM_COMPOUND_CANONICALIZED>
1

>  <PUBCHEM_CACTVS_COMPLEXITY>
1810

>  <PUBCHEM_CACTVS_HBOND_ACCEPTOR>
14

>  <PUBCHEM_CACTVS_HBOND_DONOR>
3

>  <PUBCHEM_CACTVS_ROTATABLE_BOND>
9

>  <PUBCHEM_CACTVS_SUBSKEYS>
AAADcfB+PAAAAAAAAAAAAAAAAAAAAAAAAAA8SIAAAAAAAAAAAAAAHgAACAAADTzhgAYCCAMABgCIAqHSGAIAAAAgAAAICAHIAAgbFBYAoSQHUAAH5gCfsAOY6PSOAAAAAAAAAABAAAIAAACAAAAAAAAAAA==

>  <PUBCHEM_IUPAC_OPENEYE_NAME>
(1R,9S,12S,15R,16E,18R,19R,21R,23S,24E,26E,28E,30S,32S,35R)-1,18-dihydroxy-12-[(1R)-2-[(1S,3R,4R)-4-(2-hydroxyethoxy)-3-methoxy-cyclohexyl]-1-methyl-ethyl]-19,30-dimethoxy-15,17,21,23,29,35-hexamethyl-11,36-dioxa-4-azatricyclo[30.3.1.04,9]hexatriaconta-16,24,26,28-tetraene-2,3,10,14,20-pentone

>  <PUBCHEM_IUPAC_CAS_NAME>
(1R,9S,12S,15R,16E,18R,19R,21R,23S,24E,26E,28E,30S,32S,35R)-1,18-dihydroxy-12-[(2R)-1-[(1S,3R,4R)-4-(2-hydroxyethoxy)-3-methoxycyclohexyl]propan-2-yl]-19,30-dimethoxy-15,17,21,23,29,35-hexamethyl-11,36-dioxa-4-azatricyclo[30.3.1.04,9]hexatriaconta-16,24,26,28-tetraene-2,3,10,14,20-pentone

>  <PUBCHEM_IUPAC_NAME_MARKUP>
(1<I>R</I>,9<I>S</I>,12<I>S</I>,15<I>R</I>,16<I>E</I>,18<I>R</I>,19<I>R</I>,21<I>R</I>,23<I>S</I>,24<I>E</I>,26<I>E</I>,28<I>E</I>,30<I>S</I>,32<I>S</I>,35<I>R</I>)-1,18-dihydroxy-12-[(2<I>R</I>)-1-[(1<I>S</I>,3<I>R</I>,4<I>R</I>)-4-(2-hydroxyethoxy)-3-methoxycyclohexyl]propan-2-yl]-19,30-dimethoxy-15,17,21,23,29,35-hexamethyl-11,36-dioxa-4-azatricyclo[30.3.1.0<SUP>4,9</SUP>]hexatriaconta-16,24,26,28-tetraene-2,3,10,14,20-pentone

>  <PUBCHEM_IUPAC_NAME>
(1R,9S,12S,15R,16E,18R,19R,21R,23S,24E,26E,28E,30S,32S,35R)-1,18-dihydroxy-12-[(2R)-1-[(1S,3R,4R)-4-(2-hydroxyethoxy)-3-methoxycyclohexyl]propan-2-yl]-19,30-dimethoxy-15,17,21,23,29,35-hexamethyl-11,36-dioxa-4-azatricyclo[30.3.1.04,9]hexatriaconta-16,24,26,28-tetraene-2,3,10,14,20-pentone

>  <PUBCHEM_IUPAC_SYSTEMATIC_NAME>
(1R,9S,12S,15R,16E,18R,19R,21R,23S,24E,26E,28E,30S,32S,35R)-12-[(2R)-1-[(1S,3R,4R)-4-(2-hydroxyethyloxy)-3-methoxy-cyclohexyl]propan-2-yl]-19,30-dimethoxy-15,17,21,23,29,35-hexamethyl-1,18-bis(oxidanyl)-11,36-dioxa-4-azatricyclo[30.3.1.04,9]hexatriaconta-16,24,26,28-tetraene-2,3,10,14,20-pentone

>  <PUBCHEM_IUPAC_TRADITIONAL_NAME>
(1R,9S,12S,15R,16E,18R,19R,21R,23S,24E,26E,28E,30S,32S,35R)-1,18-dihydroxy-12-[(1R)-2-[(1S,3R,4R)-4-(2-hydroxyethoxy)-3-methoxy-cyclohexyl]-1-methyl-ethyl]-19,30-dimethoxy-15,17,21,23,29,35-hexamethyl-11,36-dioxa-4-azatricyclo[30.3.1.04,9]hexatriaconta-16,24,26,28-tetraene-2,3,10,14,20-pentone

>  <PUBCHEM_IUPAC_INCHI>
InChI=1S/C53H83NO14/c1-32-16-12-11-13-17-33(2)44(63-8)30-40-21-19-38(7)53(62,68-40)50(59)51(60)54-23-15-14-18-41(54)52(61)67-45(35(4)28-39-20-22-43(66-25-24-55)46(29-39)64-9)31-42(56)34(3)27-37(6)48(58)49(65-10)47(57)36(5)26-32/h11-13,16-17,27,32,34-36,38-41,43-46,48-49,55,58,62H,14-15,18-26,28-31H2,1-10H3/b13-11+,16-12+,33-17+,37-27+/t32-,34-,35-,36-,38-,39+,40+,41+,43-,44+,45+,46-,48-,49+,53-/m1/s1

>  <PUBCHEM_IUPAC_INCHIKEY>
HKVAMNSJSFKALM-GKUWKFKPSA-N

>  <PUBCHEM_XLOGP3_AA>
5.9

>  <PUBCHEM_EXACT_MASS>
957.581356

>  <PUBCHEM_MOLECULAR_FORMULA>
C53H83NO14

>  <PUBCHEM_MOLECULAR_WEIGHT>
958.2

>  <PUBCHEM_OPENEYE_CAN_SMILES>
CC1CCC2CC(C(=CC=CC=CC(CC(C(=O)C(C(C(=CC(C(=O)CC(OC(=O)C3CCCCN3C(=O)C(=O)C1(O2)O)C(C)CC4CCC(C(C4)OC)OCCO)C)C)O)OC)C)C)C)OC

>  <PUBCHEM_OPENEYE_ISO_SMILES>
C[C@@H]1CC[C@H]2C[C@@H](/C(=C/C=C/C=C/[C@H](C[C@H](C(=O)[C@@H]([C@@H](/C(=C/[C@H](C(=O)C[C@H](OC(=O)[C@@H]3CCCCN3C(=O)C(=O)[C@@]1(O2)O)[C@H](C)C[C@@H]4CC[C@H]([C@@H](C4)OC)OCCO)C)/C)O)OC)C)C)/C)OC

>  <PUBCHEM_CACTVS_TPSA>
205

>  <PUBCHEM_MONOISOTOPIC_WEIGHT>
957.581356

>  <PUBCHEM_TOTAL_CHARGE>
0

>  <PUBCHEM_HEAVY_ATOM_COUNT>
68

>  <PUBCHEM_ATOM_DEF_STEREO_COUNT>
15

>  <PUBCHEM_ATOM_UDEF_STEREO_COUNT>
0

>  <PUBCHEM_BOND_DEF_STEREO_COUNT>
4

>  <PUBCHEM_BOND_UDEF_STEREO_COUNT>
0

>  <PUBCHEM_ISOTOPIC_ATOM_COUNT>
0

>  <PUBCHEM_COMPONENT_COUNT>
1

>  <PUBCHEM_CACTVS_TAUTO_COUNT>
-1

>  <PUBCHEM_COORDINATE_TYPE>
1
5
255

>  <PUBCHEM_BONDANNOTATIONS>
21  1  6
47  11  5
52  12  6
55  13  5
16  19  5
20  2  5
23  25  5
24  81  5
27  87  5
28  45  6
31  91  6
43  48  5
29  5  6
59  63  5
62  66  6

$$$$
